
#(C) 2024 by FIZ Karlsruhe - Leibniz Institute for Information Infrastructure.  All rights reserved.
data_235197-ICSD
_database_code_ICSD 235197
_audit_creation_date 2020-02-01
_chemical_name_common 'Copper phosphide (2.735/1)'
_chemical_formula_structural 'Cu2.735 P1'
_chemical_formula_sum 'Cu2.735 P1'
_chemical_name_structure_type LaF3(P63cm)#Cu3P
_exptl_crystal_density_diffrn 6.82
_diffrn_ambient_temperature 400.
_citation_title

;
Low-temperature tailoring of copper-deficient Cu3-xP. Electric properties,
phase transitions, and performance in lithium-ion batteries
;
loop_
_citation_id
_citation_journal_full
_citation_year
_citation_journal_volume
_citation_page_first
_citation_page_last
_citation_journal_id_ASTM
primary 'Chemistry of Materials' 2018 30 7111 7123 CMATEX
loop_
_citation_author_citation_id
_citation_author_name
primary 'Wolff, Alexander'
primary 'Doert, Thomas'
primary 'Hunger, Jens'
primary 'Kaiser, Martin'
primary 'Pallmann, Julia'
primary 'Reinhold, Romy'
primary 'Yogendra, Sivatmeehan'
primary 'Giebeler, Lars'
primary 'Sichelschmidt, Joerg'
primary 'Schnelle, Walter'
primary 'Whiteside, Rachel'
primary 'Gunaratne, H.Q. Nimal'
primary 'Nockemann, Peter'
primary 'Weigand, Jan J.'
primary 'Brunner, Eike'
primary 'Ruck, Michael'
_cell_length_a 6.9538(1)
_cell_length_b 6.9538(1)
_cell_length_c 7.1401(2)
_cell_angle_alpha 90
_cell_angle_beta 90
_cell_angle_gamma 120
_cell_volume 299.
_cell_formula_units_Z 6
_space_group_name_H-M_alt 'P 63 c m'
_space_group_IT_number 185
loop_
_space_group_symop_id
_space_group_symop_operation_xyz
1 'x, x-y, z+1/2'
2 '-x+y, y, z+1/2'
3 '-y, -x, z+1/2'
4 'x-y, x, z+1/2'
5 'y, -x+y, z+1/2'
6 '-x, -y, z+1/2'
7 '-x, -x+y, z'
8 'x-y, -y, z'
9 'y, x, z'
10 '-x+y, -x, z'
11 '-y, x-y, z'
12 'x, y, z'
loop_
_atom_type_symbol
_atom_type_oxidation_number
Cu1+ 1
P3- -2.735
loop_
_atom_site_label
_atom_site_type_symbol
_atom_site_symmetry_multiplicity
_atom_site_Wyckoff_symbol
_atom_site_fract_x
_atom_site_fract_y
_atom_site_fract_z
_atom_site_U_iso_or_equiv
_atom_site_occupancy
Cu1 Cu1+ 2 a 0 0 0.3881(6) 0.0260(4) 0.972(3)
Cu2 Cu1+ 4 b 0.333333 -0.333333 -0.2101(6) 0.0425(4) 0.972(3)
Cu3 Cu1+ 6 c 0.37044(14) 0 0.4993(4) 0.0461(6) 0.911(4)
Cu4 Cu1+ 6 c 0.28915(19) 0 0.1508(4) 0.0344(5) 0.851(4)
P1 P3- 6 c 0.33247(9) 0 -0.174648 0.01224(14) 1
loop_
_atom_site_aniso_label
_atom_site_aniso_type_symbol
_atom_site_aniso_U_11
_atom_site_aniso_U_22
_atom_site_aniso_U_33
_atom_site_aniso_U_12
_atom_site_aniso_U_13
_atom_site_aniso_U_23
Cu1 Cu1+ 0.0141(3) 0.0141(3) 0.0498(11) 0.00705(16) 0 0
Cu2 Cu1+ 0.0155(3) 0.0155(3) 0.0966(11) 0.00775(14) 0 0
Cu3 Cu1+ 0.0451(6) 0.0818(9) 0.0235(6) 0.0409(4) 0.0076(5) 0
Cu4 Cu1+ 0.0447(6) 0.0417(7) 0.0159(5) 0.0208(3) 0.0020(6) 0
P1 P3- 0.01242(15) 0.0131(2) 0.01147(16) 0.00654(11) -0.00070(10) 0
#End of TTdata_235197-ICSD