
#(C) 2024 by FIZ Karlsruhe - Leibniz Institute for Information Infrastructure.  All rights reserved.
data_29705-ICSD
_database_code_ICSD 29705
_audit_creation_date 2021-08-01
_chemical_name_common 'Tricopper tetrathiohosphate'
_chemical_formula_structural 'Cu3 P S4'
_chemical_formula_sum 'Cu3 P1 S4'
_chemical_name_structure_type Enargite#Cu3AsS4
_exptl_crystal_density_diffrn 4.14
_diffrn_ambient_temperature 293.
_citation_title

;
A series of M$_3$PS$_4$ (M = Ag, Cu and Ag/Cu) thiophosphates with
diamond-like structures exhibiting large second harmonic generation responses
and moderate ion conductivities
;
loop_
_citation_id
_citation_journal_full
_citation_year
_citation_journal_volume
_citation_page_first
_citation_page_last
_citation_journal_id_ASTM
primary 'Dalton Transactions' 2021 50 4129 4132 DTARAF
loop_
_citation_author_citation_id
_citation_author_name
primary 'Yang, Ya'
primary 'Zhang, Bingbing'
primary 'Wu, Xiaowen'
primary 'Wu, Kui'
_cell_length_a 7.2789(16)
_cell_length_b 6.3341(14)
_cell_length_c 6.0828(14)
_cell_angle_alpha 90
_cell_angle_beta 90
_cell_angle_gamma 90
_cell_volume 280.44
_cell_formula_units_Z 2
_space_group_name_H-M_alt 'P m n 21'
_space_group_IT_number 31
loop_
_space_group_symop_id
_space_group_symop_operation_xyz
1 'x+1/2, -y, z+1/2'
2 '-x+1/2, -y, z+1/2'
3 '-x, y, z'
4 'x, y, z'
loop_
_atom_type_symbol
_atom_type_oxidation_number
Cu1+ 1
S2- -2
P5+ 5
loop_
_atom_site_label
_atom_site_type_symbol
_atom_site_symmetry_multiplicity
_atom_site_Wyckoff_symbol
_atom_site_fract_x
_atom_site_fract_y
_atom_site_fract_z
_atom_site_U_iso_or_equiv
_atom_site_occupancy
Cu1 Cu1+ 2 a 0.5 0.35265(11) 0.58397(16) 0.0181(3) 1
Cu2 Cu1+ 4 b 0.24561(5) -0.17858(7) 0.57297(12) 0.0163(2) 1
S1 S2- 4 b 0.23320(13) 0.16833(16) 0.6968(3) 0.0087(3) 1
S2 S2- 2 a 0. 0.3177(3) 0.2447(3) 0.0086(4) 1
S3 S2- 2 a 0. 0.6281(3) 0.7040(3) 0.0087(4) 1
P1 P5+ 2 a 0. 0.3231(2) 0.5853(4) 0.0057(3) 1
loop_
_atom_site_aniso_label
_atom_site_aniso_type_symbol
_atom_site_aniso_U_11
_atom_site_aniso_U_22
_atom_site_aniso_U_33
_atom_site_aniso_U_12
_atom_site_aniso_U_13
_atom_site_aniso_U_23
Cu1 Cu1+ 0.0201(4) 0.0174(4) 0.0167(5) 0. 0. -0.0028(5)
Cu2 Cu1+ 0.0172(3) 0.0163(3) 0.0156(4) 0.00127(19) -0.0002(2) 0.0011(3)
S1 S2- 0.0075(5) 0.0084(6) 0.0101(8) 0.0015(4) -0.0011(5) -0.0001(4)
S2 S2- 0.0102(8) 0.0106(8) 0.0051(9) 0. 0. 0.0002(6)
S3 S2- 0.0108(7) 0.0058(8) 0.0096(9) 0. 0. -0.0007(7)
P1 P5+ 0.0062(6) 0.0054(7) 0.0055(8) 0. 0. -0.0009(7)
#End of TTdata_29705-ICSD