
#(C) 2024 by FIZ Karlsruhe - Leibniz Institute for Information Infrastructure.  All rights reserved.
data_24530-ICSD
_database_code_ICSD 24530
_audit_creation_date 1980-01-01
_chemical_name_common 'Copper(I) tetrathiophosphate'
_chemical_formula_structural 'Cu3 P S4'
_chemical_formula_sum 'Cu3 P1 S4'
_chemical_name_structure_type Enargite#Cu3AsS4
_exptl_crystal_density_diffrn 3.92
_citation_title 'La struttura del tiofosfato rameoso'
loop_
_citation_id
_citation_journal_full
_citation_year
_citation_journal_volume
_citation_page_first
_citation_page_last
_citation_journal_id_ASTM
primary 'Gazzetta Chimica Italiana' 1948 78 283 285 GCITA9
loop_
_citation_author_citation_id
_citation_author_name
primary 'Ferrari, A.'
primary 'Cavalca, L.'
_cell_length_a 6.46(2)
_cell_length_b 7.43(2)
_cell_length_c 6.18(2)
_cell_angle_alpha 90.
_cell_angle_beta 90.
_cell_angle_gamma 90.
_cell_volume 296.63
_cell_formula_units_Z 2
_space_group_name_H-M_alt 'P n m 21'
_space_group_IT_number 31
loop_
_space_group_symop_id
_space_group_symop_operation_xyz
1 '-x, y+1/2, z+1/2'
2 '-x, -y+1/2, z+1/2'
3 'x, -y, z'
4 'x, y, z'
loop_
_atom_type_symbol
_atom_type_oxidation_number
Cu1+ 1
P5+ 5
S2- -2
loop_
_atom_site_label
_atom_site_type_symbol
_atom_site_symmetry_multiplicity
_atom_site_Wyckoff_symbol
_atom_site_fract_x
_atom_site_fract_y
_atom_site_fract_z
_atom_site_B_iso_or_equiv
_atom_site_occupancy
Cu1 Cu1+ 2 a 0.165 0 0.5 . 1.
Cu2 Cu1+ 4 b 0.333 0.245 0.99 . 1.
P1 P5+ 2 a 0.82 0 0 . 1.
S1 S2- 2 a 0.83 0 0.36 . 1.
S2 S2- 2 a 0.14 0 0.875 . 1.
S3 S2- 4 b 0.33 0.255 0.367 . 1.
#End of TTdata_24530-ICSD