
#(C) 2024 by FIZ Karlsruhe - Leibniz Institute for Information Infrastructure.  All rights reserved.
data_22451-ICSD
_database_code_ICSD 22451
_audit_creation_date 2021-08-01
_chemical_name_common 'Heptacopper hexathiophosphate'
_chemical_formula_structural 'Cu7 P S6'
_chemical_formula_sum 'Cu7 P1 S6'
_exptl_crystal_density_diffrn 4.91
_citation_title

;
The copper argyrodites Cu$_{7-n}$PS$_{6-n}$Br$_n$. Crystal growth, structures
and ionic conductivity
;
loop_
_citation_id
_citation_journal_full
_citation_year
_citation_journal_volume
_citation_page_first
_citation_page_last
_citation_journal_id_ASTM
primary 'Solid State Ionics' 2019 341 1 9 SSIOD3
loop_
_citation_author_citation_id
_citation_author_name
primary 'Pogodin, A.I.'
primary 'Filep, M.J.'
primary 'Malakhovska, T.O.'
primary 'Sabov, M.Yu.'
primary 'Sidey, V.I.'
primary 'Kokhan, O.P.'
primary 'Studenyak, I.P.'
_cell_length_a 9.668
_cell_length_b 9.668
_cell_length_c 9.668
_cell_angle_alpha 90.
_cell_angle_beta 90.
_cell_angle_gamma 90.
_cell_volume 903.67
_cell_formula_units_Z 4
_space_group_name_H-M_alt 'P 21 3'
_space_group_IT_number 198
loop_
_space_group_symop_id
_space_group_symop_operation_xyz
1 '-z+1/2, -x, y+1/2'
2 '-y+1/2, -z, x+1/2'
3 '-x+1/2, -y, z+1/2'
4 '-z, x+1/2, -y+1/2'
5 '-y, z+1/2, -x+1/2'
6 '-x, y+1/2, -z+1/2'
7 'z+1/2, -x+1/2, -y'
8 'y+1/2, -z+1/2, -x'
9 'x+1/2, -y+1/2, -z'
10 'z, x, y'
11 'y, z, x'
12 'x, y, z'
loop_
_atom_type_symbol
_atom_type_oxidation_number
S2- -2
P5+ 5
Cu1+ 1
loop_
_atom_site_label
_atom_site_type_symbol
_atom_site_symmetry_multiplicity
_atom_site_Wyckoff_symbol
_atom_site_fract_x
_atom_site_fract_y
_atom_site_fract_z
_atom_site_B_iso_or_equiv
_atom_site_occupancy
S1 S2- 4 a 0.4707 0.4707 0.4707 5.484 0.964
S2 S2- 12 b 0.1361 -0.1078 0.131 0.5 1
S3 S2- 4 a 0.1408 0.3592 0.6408 0.5 1
S4 S2- 4 a 0.2376 0.2376 0.2376 0.5 1
P1 P5+ 4 a 0.2643 0.2357 0.7643 0.5 1
Cu1 Cu1+ 12 b 0.0637 0.235 0.4263 2.006 0.943
Cu2 Cu1+ 12 b -0.0275 -0.0119 0.2698 0.5 0.732
Cu3 Cu1+ 12 b 0.0722 0.0787 0.2755 0.261 0.347
Cu4 Cu1+ 4 a 0.3659 0.3659 0.3659 5.501 0.927
#End of TTdata_22451-ICSD