
#(C) 2024 by FIZ Karlsruhe - Leibniz Institute for Information Infrastructure.  All rights reserved.
data_653601-ICSD
_database_code_ICSD 653601
_audit_creation_date 2008-07-07
_audit_update_record 2017-08-01
_chemical_name_common 'Copper phosphide (1/2)'
_chemical_formula_structural 'Cu P2'
_chemical_formula_sum 'Cu1 P2'
_chemical_name_structure_type CuP2
_exptl_crystal_density_diffrn 4.3
_citation_title

;
The crystal structures of Cu P2 and Ag P2 with some phase analytical data of
the Cu-P and Ag-P systems
;
loop_
_citation_id
_citation_journal_full
_citation_year
_citation_journal_volume
_citation_page_first
_citation_page_last
_citation_journal_id_ASTM
primary 'Acta Chemica Scandinavica ' 1965 19 229 241 ACSAA4
loop_
_citation_author_citation_id
_citation_author_name
primary 'Olofsson, Olle'
_cell_length_a 5.802(5)
_cell_length_b 4.807(5)
_cell_length_c 7.525(5)
_cell_angle_alpha 90.
_cell_angle_beta 112.68(5)
_cell_angle_gamma 90.
_cell_volume 193.64
_cell_formula_units_Z 4
_space_group_name_H-M_alt 'P 1 21/c 1'
_space_group_IT_number 14
loop_
_space_group_symop_id
_space_group_symop_operation_xyz
1 'x, -y+1/2, z+1/2'
2 '-x, -y, -z'
3 '-x, y+1/2, -z+1/2'
4 'x, y, z'
loop_
_atom_type_symbol
_atom_type_oxidation_number
Cu0+ 0
P0+ 0
loop_
_atom_site_label
_atom_site_type_symbol
_atom_site_symmetry_multiplicity
_atom_site_Wyckoff_symbol
_atom_site_fract_x
_atom_site_fract_y
_atom_site_fract_z
_atom_site_B_iso_or_equiv
_atom_site_occupancy
Cu1 Cu0+ 4 e 0.1435(3) 0.4605(4) 0.4158(2) 0.52(2) 1
P1 P0+ 4 e 0.2493(5) 0.7788(7) 0.6989(4) 0.18(3) 1
P2 P0+ 4 e 0.4066(5) 0.1147(7) 0.5805(4) 0.13(3) 1
#End of TTdata_653601-ICSD