
#(C) 2024 by FIZ Karlsruhe - Leibniz Institute for Information Infrastructure.  All rights reserved.
data_430200-ICSD
_database_code_ICSD 430200
_audit_creation_date 2016-08-01
_chemical_name_common 'Dicopper hexathiodiphosphate'
_chemical_formula_structural 'Cu2 P2 S6'
_chemical_formula_sum 'Cu2 P2 S6'
_exptl_crystal_density_diffrn 3.04
_diffrn_ambient_temperature 293.
_citation_title
'Synthesis and characterization of copper hexathiometadiphosphate Cu2P2S6'
loop_
_citation_id
_citation_journal_full
_citation_year
_citation_journal_volume
_citation_page_first
_citation_page_last
_citation_journal_id_ASTM
primary 'Zeitschrift fuer Anorganische und Allgemeine Chemie' 2016 642 356 360
ZAACAB
loop_
_citation_author_citation_id
_citation_author_name
primary 'Kuhn, Alexander'
primary 'Schoop, Leslie M.'
primary 'Eger, Roland'
primary 'Lotsch, Bettina V.'
_cell_length_a 5.2565(7)
_cell_length_b 5.2565(7)
_cell_length_c 15.066(3)
_cell_angle_alpha 90.
_cell_angle_beta 90.
_cell_angle_gamma 90.
_cell_volume 416.28
_cell_formula_units_Z 2
_space_group_name_H-M_alt 'P 42/m n m'
_space_group_IT_number 136
loop_
_space_group_symop_id
_space_group_symop_operation_xyz
1 '-y+1/2, x+1/2, -z+1/2'
2 'y+1/2, -x+1/2, -z+1/2'
3 'y, x, -z'
4 '-y, -x, -z'
5 'y+1/2, -x+1/2, z+1/2'
6 '-y+1/2, x+1/2, z+1/2'
7 '-y, -x, z'
8 'y, x, z'
9 'x+1/2, -y+1/2, -z+1/2'
10 '-x+1/2, y+1/2, -z+1/2'
11 'x, y, -z'
12 '-x, -y, -z'
13 '-x+1/2, y+1/2, z+1/2'
14 'x+1/2, -y+1/2, z+1/2'
15 '-x, -y, z'
16 'x, y, z'
loop_
_atom_type_symbol
_atom_type_oxidation_number
S2- -2
Cu1+ 1
P5+ 5
loop_
_atom_site_label
_atom_site_type_symbol
_atom_site_symmetry_multiplicity
_atom_site_Wyckoff_symbol
_atom_site_fract_x
_atom_site_fract_y
_atom_site_fract_z
_atom_site_U_iso_or_equiv
_atom_site_occupancy
S1 S2- 4 f 0.21041(13) 0.21041(13) 0. 0.0153(2) 1
S2 S2- 8 j -0.23553(14) 0.23553(14) 0.15972(4) 0.01562(16) 1
Cu1 Cu1+ 4 d 0. 0.5 0.25 0.02258(15) 1
P1 P5+ 4 e 0. 0. 0.09438(6) 0.01168(19) 1
loop_
_atom_site_aniso_label
_atom_site_aniso_type_symbol
_atom_site_aniso_U_11
_atom_site_aniso_U_22
_atom_site_aniso_U_33
_atom_site_aniso_U_12
_atom_site_aniso_U_13
_atom_site_aniso_U_23
S1 S2- 0.0172(3) 0.0172(3) 0.0115(4) -0.0078(4) 0. 0.
S2 S2- 0.0155(2) 0.0155(2) 0.0159(3) -0.0004(3) 0.00343(17) -0.00343(17)
Cu1 Cu1+ 0.02285(18) 0.02285(18) 0.0220(3) 0. 0. 0.
P1 P5+ 0.0131(3) 0.0131(3) 0.0088(4) -0.0009(5) 0. 0.
#End of TTdata_430200-ICSD