
#(C) 2024 by FIZ Karlsruhe - Leibniz Institute for Information Infrastructure.  All rights reserved.
data_628635-ICSD
_database_code_ICSD 628635
_audit_creation_date 2013-02-01
_audit_update_record 2020-02-01
_chemical_name_common 'Tricopper(I) tetrathiophosphate'
_chemical_formula_structural 'Cu3 (P S4)'
_chemical_formula_sum 'Cu3 P1 S4'
_chemical_name_structure_type Enargite#Cu3AsS4
_exptl_crystal_density_diffrn 4.15
_citation_title

;
The crystal structure of Cu3PSe4 and other ternary normal tetrahedral
structure compounds with composition 13564
;
_publ_section_comment 'Cell and Type only determined'
loop_
_citation_id
_citation_journal_full
_citation_year
_citation_journal_volume
_citation_page_first
_citation_page_last
_citation_journal_id_ASTM
primary

;
Acta Crystallographica, Section B: Structural Crystallography and Crystal
Chemistry
; 1972 28 3672 3674 ACBCAR
loop_
_citation_author_citation_id
_citation_author_name
primary 'Garin, J.'
primary 'Parthe, E.'
_cell_length_a 7.296(2)
_cell_length_b 6.319(2)
_cell_length_c 6.072(2)
_cell_angle_alpha 90.
_cell_angle_beta 90.
_cell_angle_gamma 90.
_cell_volume 279.94
_cell_formula_units_Z 2
_space_group_name_H-M_alt 'P m n 21'
_space_group_IT_number 31
loop_
_space_group_symop_id
_space_group_symop_operation_xyz
1 'x+1/2, -y, z+1/2'
2 '-x+1/2, -y, z+1/2'
3 '-x, y, z'
4 'x, y, z'
loop_
_atom_type_symbol
_atom_type_oxidation_number
P5+ 5
Cu1+ 1
S2- -2
loop_
_atom_site_label
_atom_site_type_symbol
_atom_site_symmetry_multiplicity
_atom_site_Wyckoff_symbol
_atom_site_fract_x
_atom_site_fract_y
_atom_site_fract_z
_atom_site_B_iso_or_equiv
_atom_site_occupancy
P1 P5+ 2 a 0 0.827 0 . 1.
Cu1 Cu1+ 2 a 0 0.151 0.498 . 1.
Cu2 Cu1+ 4 b 0.247 0.326 0.987 . 1.
S1 S2- 2 a 0 0.823 0.645 . 1.
S2 S2- 2 a 0 0.144 0.117 . 1.
S3 S2- 4 b 0.26 0.336 0.619 . 1.
#End of TTdata_628635-ICSD