
#(C) 2024 by FIZ Karlsruhe - Leibniz Institute for Information Infrastructure.  All rights reserved.
data_412240-ICSD
_database_code_ICSD 412240
_audit_creation_date 2002-10-01
_audit_update_record 2013-02-01
_chemical_name_common 'Tricopper tetrathiophosphate(V)'
_chemical_formula_structural 'Cu3 (P S4)'
_chemical_formula_sum 'Cu3 P1 S4'
_chemical_name_structure_type Enargite#Cu3AsS4
_exptl_crystal_density_diffrn 4.14
_citation_title

;
Refinement of the crystal structures of Cu3 P S4 and Cu3 Sb S4 and a comment
on normal tetrahedral structures
;
loop_
_citation_id
_citation_journal_full
_citation_year
_citation_journal_volume
_citation_page_first
_citation_page_last
_citation_journal_id_ASTM
primary 'Zeitschrift fuer Kristallographie' 2002 217 51 54 ZEKRDZ
loop_
_citation_author_citation_id
_citation_author_name
primary 'Pfitzner, A.'
primary 'Reiser, S.'
_cell_length_a 7.2817(11)
_cell_length_b 6.3387(10)
_cell_length_c 6.0746(10)
_cell_angle_alpha 90.
_cell_angle_beta 90.
_cell_angle_gamma 90.
_cell_volume 280.38
_cell_formula_units_Z 2
_space_group_name_H-M_alt 'P m n 21'
_space_group_IT_number 31
loop_
_space_group_symop_id
_space_group_symop_operation_xyz
1 'x+1/2, -y, z+1/2'
2 '-x+1/2, -y, z+1/2'
3 '-x, y, z'
4 'x, y, z'
loop_
_atom_type_symbol
_atom_type_oxidation_number
Cu1+ 1
P5+ 5
S2- -2
loop_
_atom_site_label
_atom_site_type_symbol
_atom_site_symmetry_multiplicity
_atom_site_Wyckoff_symbol
_atom_site_fract_x
_atom_site_fract_y
_atom_site_fract_z
_atom_site_B_iso_or_equiv
_atom_site_occupancy
Cu1 Cu1+ 2 a 0 0.64755(12) 0.09834(11) . 1.
Cu2 Cu1+ 4 b 0.74561(5) 0.17836(7) 0.08730(8) . 1.
P1 P5+ 2 a 0 0.32341(14) 0.5999(3) . 1.
S1 S2- 2 a 0 0.31751(18) 0.2584(3) . 1.
S2 S2- 2 a 0 0.6281(2) 0.7176(2) . 1.
S3 S2- 4 b 0.73302(11) 0.83200(12) 0.2102(2) . 1.
loop_
_atom_site_aniso_label
_atom_site_aniso_type_symbol
_atom_site_aniso_U_11
_atom_site_aniso_U_22
_atom_site_aniso_U_33
_atom_site_aniso_U_12
_atom_site_aniso_U_13
_atom_site_aniso_U_23
Cu1 Cu1+ 0.0196(3) 0.0175(3) 0.0157(4) 0 0 0.0025(3)
Cu2 Cu1+ 0.0171(3) 0.0156(3) 0.0167(4) -0.00099(12) -0.00017(14) -0.00052(19)
P1 P5+ 0.0052(5) 0.0048(5) 0.0045(5) 0 0 0.0001(3)
S1 S2- 0.0102(5) 0.0124(5) 0.0041(6) 0 0 -0.0006(3)
S2 S2- 0.0103(4) 0.0063(5) 0.0080(6) 0 0 -0.0010(4)
S3 S2- 0.0082(3) 0.0097(4) 0.0103(5) -0.0012(2) -0.0007(3) 0.0003(2)
#End of TTdata_412240-ICSD