
#(C) 2024 by FIZ Karlsruhe - Leibniz Institute for Information Infrastructure.  All rights reserved.
data_628625-ICSD
_database_code_ICSD 628625
_audit_creation_date 2020-08-01
_chemical_name_common 'Copper phosphide (1/2)'
_chemical_formula_structural 'Cu P2'
_chemical_formula_sum 'Cu1 P2'
_chemical_name_structure_type CuP2
_exptl_crystal_density_diffrn 4.32
_citation_title

;
Crystal growth and characterization of the transition-metal phosphides Cu
P$_2$, Ni P$_2$, and Rh P$_3$
;
_publ_section_comment 'Cell and Type only determined'
loop_
_citation_id
_citation_journal_full
_citation_year
_citation_journal_volume
_citation_page_first
_citation_page_last
_citation_journal_id_ASTM
primary 'Inorganic Chemistry' 1978 17 283 286 INOCAJ
loop_
_citation_author_citation_id
_citation_author_name
primary 'Odile, J.P.'
primary 'Soled, S.'
primary 'Castro, C.A.'
primary 'Wold, A.'
_cell_length_a 5.796
_cell_length_b 4.803
_cell_length_c 7.514
_cell_angle_alpha 90.
_cell_angle_beta 112.68
_cell_angle_gamma 90.
_cell_volume 193.
_cell_formula_units_Z 4
_space_group_name_H-M_alt 'P 1 21/c 1'
_space_group_IT_number 14
loop_
_space_group_symop_id
_space_group_symop_operation_xyz
1 'x, -y+1/2, z+1/2'
2 '-x, -y, -z'
3 '-x, y+1/2, -z+1/2'
4 'x, y, z'
loop_
_atom_type_symbol
_atom_type_oxidation_number
Cu2+ 2
P1- -1
loop_
_atom_site_label
_atom_site_type_symbol
_atom_site_symmetry_multiplicity
_atom_site_Wyckoff_symbol
_atom_site_fract_x
_atom_site_fract_y
_atom_site_fract_z
_atom_site_B_iso_or_equiv
_atom_site_occupancy
Cu1 Cu2+ 4 e 0.143 0.461 0.416 . 1.
P1 P1- 4 e 0.25 0.779 0.7 . 1.
P2 P1- 4 e 0.406 0.114 0.58 . 1.
#End of TTdata_628625-ICSD