
#(C) 2024 by FIZ Karlsruhe - Leibniz Institute for Information Infrastructure.  All rights reserved.
data_628636-ICSD
_database_code_ICSD 628636
_audit_creation_date 2020-08-01
_chemical_name_common 'Copper(I) phosphorus sulfide'
_chemical_formula_structural '(Cu P) S2'
_chemical_formula_sum 'Cu1 P1 S2'
_chemical_name_structure_type Wurtzite#ZnS(2H)
_exptl_crystal_density_diffrn 3.75
_citation_title

;
Sur deux sÃ©ries de composÃ©s ternaires, dÃ©rivÃ©s du bore: CuBS$_2$ et CuBSe$_2$,
et dÃ©rivÃ©s du phosphore: CuPS$_2$ et CuPSe$_2$
;
_publ_section_comment 'Cell and Type only determined'
loop_
_citation_id
_citation_journal_full
_citation_year
_citation_journal_volume
_citation_page_first
_citation_page_last
_citation_journal_id_ASTM
primary "Comptes Rendus Hebdomadaires des Seances de l'Academie des Sciences"
1963 257 3919 3922 COREAF
loop_
_citation_author_citation_id
_citation_author_name
primary 'Kamsu Kom, Jacques'
primary 'Flahaut, Jean'
primary 'Domange, Louis'
_cell_length_a 3.652
_cell_length_b 3.652
_cell_length_c 6.085
_cell_angle_alpha 90.
_cell_angle_beta 90.
_cell_angle_gamma 120.
_cell_volume 70.28
_cell_formula_units_Z 1
_space_group_name_H-M_alt 'P 63 m c'
_space_group_IT_number 186
loop_
_space_group_symop_id
_space_group_symop_operation_xyz
1 '-x, -x+y, z+1/2'
2 'x-y, -y, z+1/2'
3 'y, x, z+1/2'
4 'x-y, x, z+1/2'
5 'y, -x+y, z+1/2'
6 '-x, -y, z+1/2'
7 'x, x-y, z'
8 '-x+y, y, z'
9 '-y, -x, z'
10 '-x+y, -x, z'
11 '-y, x-y, z'
12 'x, y, z'
loop_
_atom_type_symbol
_atom_type_oxidation_number
Cu1+ 1
P3+ 3
S2- -2
loop_
_atom_site_label
_atom_site_type_symbol
_atom_site_symmetry_multiplicity
_atom_site_Wyckoff_symbol
_atom_site_fract_x
_atom_site_fract_y
_atom_site_fract_z
_atom_site_B_iso_or_equiv
_atom_site_occupancy
Cu1 Cu1+ 2 b 0.3333 0.6667 0 . 0.5
P1 P3+ 2 b 0.3333 0.6667 0 . 0.5
S1 S2- 2 b 0.3333 0.6667 0.381 . 1.
#End of TTdata_628636-ICSD