
#(C) 2024 by FIZ Karlsruhe - Leibniz Institute for Information Infrastructure.  All rights reserved.
data_26775-ICSD
_database_code_ICSD 26775
_audit_creation_date 1980-01-01
_audit_update_record 2006-04-01
_chemical_name_common 'Copper(I) phosphide'
_chemical_formula_structural 'Cu3 P'
_chemical_formula_sum 'Cu3 P1'
_chemical_name_structure_type Fluocerite#LaF3(P3-c1)
_exptl_crystal_density_diffrn 7.27
_citation_title 'Ueber Verbindungen vom Anti-La F3-Strukturtyp'
loop_
_citation_id
_citation_journal_full
_citation_year
_citation_journal_volume
_citation_page_first
_citation_page_last
_citation_journal_id_ASTM
primary 'Zeitschrift fuer Kristallographie' 1965 122 399 406 ZEKRDZ
loop_
_citation_author_citation_id
_citation_author_name
primary 'Mansmann, M.'
_cell_length_a 6.992(5)
_cell_length_b 6.992(5)
_cell_length_c 7.170(5)
_cell_angle_alpha 90.
_cell_angle_beta 90.
_cell_angle_gamma 120.
_cell_volume 303.57
_cell_formula_units_Z 6
_space_group_name_H-M_alt 'P -3 c 1'
_space_group_IT_number 165
loop_
_space_group_symop_id
_space_group_symop_operation_xyz
1 'x-y, -y, -z+1/2'
2 '-x, -x+y, -z+1/2'
3 'y, x, -z+1/2'
4 'x-y, x, -z'
5 'y, -x+y, -z'
6 '-x, -y, -z'
7 '-x+y, y, z+1/2'
8 'x, x-y, z+1/2'
9 '-y, -x, z+1/2'
10 '-x+y, -x, z'
11 '-y, x-y, z'
12 'x, y, z'
loop_
_atom_type_symbol
_atom_type_oxidation_number
P3- -3
Cu1+ 1
loop_
_atom_site_label
_atom_site_type_symbol
_atom_site_symmetry_multiplicity
_atom_site_Wyckoff_symbol
_atom_site_fract_x
_atom_site_fract_y
_atom_site_fract_z
_atom_site_B_iso_or_equiv
_atom_site_occupancy
P1 P3- 6 f 0.6587 0 0.25 0.5 1.
Cu1 Cu1+ 12 g 0.3758 0.0623 0.0813 0.5 1.
Cu2 Cu1+ 4 d 0.3333 0.6667 0.1825 0.5 1.
Cu3 Cu1+ 2 a 0 0 0.25 0.5 1.
#End of TTdata_26775-ICSD