
#(C) 2024 by FIZ Karlsruhe - Leibniz Institute for Information Infrastructure.  All rights reserved.
data_418805-ICSD
_database_code_ICSD 418805
_audit_creation_date 2009-02-01
_audit_update_record 2024-02-01
_chemical_name_common 'Copper phosphide (2/20)'
_chemical_formula_structural 'Cu2 P20'
_chemical_formula_sum 'Cu2 P20'
_exptl_crystal_density_diffrn 2.8
_diffrn_ambient_temperature 298.
_citation_title
'Mineralization routes to polyphosphides: Cu2 P20 and Cu5 In P16'
loop_
_citation_id
_citation_journal_full
_citation_year
_citation_journal_volume
_citation_page_first
_citation_page_last
_citation_journal_id_ASTM
primary 'Angewandte Chemie, International Edition' 2008 47 5654 5657 ACIEF5
loop_
_citation_author_citation_id
_citation_author_name
primary 'Lange, S.'
primary 'Bawohl, M.'
primary 'Weihrich, R.'
primary 'Nilges, T.'
_cell_length_a 7.131(4)
_cell_length_b 11.437(4)
_cell_length_c 11.750(4)
_cell_angle_alpha 68.53(3)
_cell_angle_beta 83.60(4)
_cell_angle_gamma 84.39(4)
_cell_volume 884.56
_cell_formula_units_Z 2
_space_group_name_H-M_alt 'P -1'
_space_group_IT_number 2
loop_
_space_group_symop_id
_space_group_symop_operation_xyz
1 '-x, -y, -z'
2 'x, y, z'
loop_
_atom_type_symbol
_atom_type_oxidation_number
Cu1+ 1
P0+ -0.1
loop_
_atom_site_label
_atom_site_type_symbol
_atom_site_symmetry_multiplicity
_atom_site_Wyckoff_symbol
_atom_site_fract_x
_atom_site_fract_y
_atom_site_fract_z
_atom_site_U_iso_or_equiv
_atom_site_occupancy
Cu1 Cu1+ 2 i -0.22861(13) -0.11905(10) 0.03432(9) 0.0073(4) 1
Cu2 Cu1+ 2 i 0.22462(13) -0.17532(11) 0.25530(9) 0.0093(4) 1
P1 P0+ 2 i 0.0700(3) 0.0969(2) -0.30325(18) 0.0081(8) 1
P2 P0+ 2 i -0.1650(3) 0.1073(2) 0.23890(18) 0.0076(8) 1
P3 P0+ 2 i 0.0635(3) -0.1722(2) -0.04033(18) 0.0067(8) 1
P4 P0+ 2 i 0.1710(3) -0.3712(2) -0.00176(19) 0.0085(8) 1
P5 P0+ 2 i 0.0544(3) -0.4539(2) 0.19011(19) 0.0096(8) 1
P6 P0+ 2 i -0.1873(3) 0.6463(2) -0.23208(18) 0.0107(8) 1
P7 P0+ 2 i -0.0545(3) 0.6833(2) -0.41811(20) 0.0107(8) 1
P8 P0+ 2 i -0.1739(3) 0.8761(2) -0.50394(19) 0.0086(8) 1
P9 P0+ 2 i 0.5053(3) 0.1111(2) -0.29453(18) 0.0061(8) 1
P10 P0+ 2 i 0.4764(3) -0.0964(2) -0.23376(19) 0.0072(8) 1
P11 P0+ 2 i 0.4924(3) 0.1596(2) 0.03323(18) 0.0064(8) 1
P12 P0+ 2 i 0.4787(3) -0.3632(2) 0.01345(18) 0.0066(8) 1
P13 P0+ 2 i -0.4852(3) -0.4251(2) 0.21090(20) 0.0106(8) 1
P14 P0+ 2 i 0.5011(3) 0.6271(2) -0.25137(19) 0.0090(8) 1
P15 P0+ 2 i 0.4925(3) 0.6509(2) -0.44516(19) 0.0085(8) 1
P16 P0+ 2 i 0.5144(3) -0.1448(2) 0.49079(19) 0.0082(8) 1
P17 P0+ 2 i 0.7782(3) 0.5638(2) -0.4783(2) 0.0122(8) 1
P18 P0+ 2 i -0.2334(3) 0.3900(2) -0.29700(19) 0.0098(8) 1
P19 P0+ 2 i 0.2481(3) -0.0957(2) 0.04462(19) 0.0056(7) 1
P20 P0+ 2 i 0.2477(3) 0.2041(2) -0.24663(19) 0.0084(8) 1
loop_
_atom_site_aniso_label
_atom_site_aniso_type_symbol
_atom_site_aniso_U_11
_atom_site_aniso_U_22
_atom_site_aniso_U_33
_atom_site_aniso_U_12
_atom_site_aniso_U_13
_atom_site_aniso_U_23
Cu1 Cu1+ 0.0015(5) 0.0110(6) 0.0108(5) -0.0017(4) 0.0012(3) -0.0057(5)
Cu2 Cu1+ 0.0050(5) 0.0124(6) 0.0106(5) -0.0006(4) 0.0007(4) -0.0048(5)
P1 P0+ 0.0029(10) 0.0109(13) 0.0076(10) 0.0005(8) 0.0012(7) -0.0007(10)
P2 P0+ 0.0090(11) 0.0093(13) 0.0062(10) -0.0047(8) -0.0006(8) -0.0038(10)
P3 P0+ 0.0014(10) 0.0087(13) 0.0084(10) 0.0001(8) 0.0013(7) -0.0018(10)
P4 P0+ 0.0059(10) 0.0102(13) 0.0098(10) -0.0043(8) -0.0002(7) -0.0033(10)
P5 P0+ 0.0049(10) 0.0111(13) 0.0103(10) 0.0008(8) -0.0010(8) -0.0011(10)
P6 P0+ 0.0110(11) 0.0147(13) 0.0076(10) -0.0055(8) -0.0002(8) -0.0044(10)
P7 P0+ 0.0072(10) 0.0098(13) 0.0124(11) 0.0008(8) 0.0014(8) -0.0017(11)
P8 P0+ 0.0092(10) 0.0103(13) 0.0071(10) -0.0026(8) -0.0014(7) -0.0033(10)
P9 P0+ 0.0036(10) 0.0080(12) 0.0072(10) -0.0012(7) -0.0012(7) -0.0029(10)
P10 P0+ 0.0058(10) 0.0078(12) 0.0081(10) -0.0009(8) 0.0014(7) -0.0033(10)
P11 P0+ 0.0036(10) 0.0080(13) 0.0078(10) -0.0012(7) 0.0006(7) -0.0033(10)
P12 P0+ 0.0060(10) 0.0047(12) 0.0074(10) 0.0005(7) 0.0032(7) -0.0016(10)
P13 P0+ 0.0112(11) 0.0083(13) 0.0115(11) -0.0033(8) -0.0048(8) -0.0009(11)
P14 P0+ 0.0087(11) 0.0061(13) 0.0109(10) 0.0033(8) 0.0001(8) -0.0027(10)
P15 P0+ 0.0055(10) 0.0079(13) 0.0109(10) 0.0002(8) -0.0022(8) -0.0018(10)
P16 P0+ 0.0058(10) 0.0101(13) 0.0093(10) 0.0005(8) 0.0003(7) -0.0048(10)
P17 P0+ 0.0163(12) 0.0111(14) 0.0097(10) 0.0009(9) 0.0005(8) -0.0053(10)
P18 P0+ 0.0087(11) 0.0082(13) 0.0091(10) -0.0007(8) 0.0008(8) 0.0003(10)
P19 P0+ 0.0044(10) 0.0046(12) 0.0090(10) -0.0005(8) 0.0022(7) -0.0045(10)
P20 P0+ 0.0069(11) 0.0081(13) 0.0086(10) -0.0027(8) 0.0011(8) -0.0011(10)
#End of TTdata_418805-ICSD