
#(C) 2024 by FIZ Karlsruhe - Leibniz Institute for Information Infrastructure.  All rights reserved.
data_628639-ICSD
_database_code_ICSD 628639
_audit_creation_date 2012-02-01
_audit_update_record 2019-02-01
_chemical_name_common 'Heptacopper tetrathiophosphate(V) disulfide'
_chemical_formula_structural 'Cu7 (P S4) S2'
_chemical_formula_sum 'Cu7 P1 S6'
_chemical_name_structure_type Ag7PSe4Se2
_exptl_crystal_density_diffrn 4.91
_citation_title
'The argyrodites - A new family of tetrahedrally close-packed structures'
_publ_section_comment 'Cell and Type only determined'
loop_
_citation_id
_citation_journal_full
_citation_year
_citation_journal_volume
_citation_page_first
_citation_page_last
_citation_journal_id_ASTM
primary 'Materials Research Bulletin' 1979 14 241 248 MRBUAC
loop_
_citation_author_citation_id
_citation_author_name
primary 'Kuhs, W.F.'
primary 'Nitsche, R.'
primary 'Scheunemann, K.'
_cell_length_a 9.669(2)
_cell_length_b 9.669(2)
_cell_length_c 9.669(2)
_cell_angle_alpha 90.
_cell_angle_beta 90.
_cell_angle_gamma 90.
_cell_volume 903.95
_cell_formula_units_Z 4
_space_group_name_H-M_alt 'P 21 3'
_space_group_IT_number 198
loop_
_space_group_symop_id
_space_group_symop_operation_xyz
1 '-z+1/2, -x, y+1/2'
2 '-y+1/2, -z, x+1/2'
3 '-x+1/2, -y, z+1/2'
4 '-z, x+1/2, -y+1/2'
5 '-y, z+1/2, -x+1/2'
6 '-x, y+1/2, -z+1/2'
7 'z+1/2, -x+1/2, -y'
8 'y+1/2, -z+1/2, -x'
9 'x+1/2, -y+1/2, -z'
10 'z, x, y'
11 'y, z, x'
12 'x, y, z'
loop_
_atom_type_symbol
_atom_type_oxidation_number
Cu1+ 1
P5+ 5
S2- -2
loop_
_atom_site_label
_atom_site_type_symbol
_atom_site_symmetry_multiplicity
_atom_site_Wyckoff_symbol
_atom_site_fract_x
_atom_site_fract_y
_atom_site_fract_z
_atom_site_B_iso_or_equiv
_atom_site_occupancy
Cu1 Cu1+ 12 b 0.075 0.403 0.265 . 1.
Cu2 Cu1+ 12 b 0.227 0.482 0.491 . 1.
Cu3 Cu1+ 4 a 0.146 0.146 0.146 . 1.
P1 P5+ 4 a 0.743 0.743 0.743 . 1.
S1 S2- 4 a 0.626 0.626 0.626 . 1.
S2 S2- 12 b 0.123 0.628 0.142 . 1.
S3 S2- 4 a 0.28 0.28 0.28 . 1.
S4 S2- 4 a 0.013 0.013 0.013 . 1.
#End of TTdata_628639-ICSD